,element,element_id,molar_volume,electron_density,electronegativity,valence_electrons,a_const,R_const,H_trans,compressibility,shear_modulus,melting_point,structural_stability
3,B,5,4.7,5.36,5.3,3,0.07,1.9,30,178.5,203.1,2300.0,0.0
4,C,6,3.26,5.55,6.24,4,0.04,2.1,180,545.4,451.3,4100.0,0.0
5,N,7,4.1,4.49,6.86,5,0.04,2.3,310,0.0,0.0,63.14,0.0
8,Al,13,10.0,2.7,4.2,3,0.07,1.9,0,72.18,26.59,933.25,0.0
9,Si,14,8.6,3.38,4.7,4,0.04,2.1,34,98.88,39.73,1685.0,0.0
10,P,15,8.6,4.49,5.55,5,0.04,2.3,17,19.19,7.161,317.3,0.0
23,Ga,31,11.82,2.25,4.1,3,0.07,1.9,0,56.9,37.47,302.9,0.0
24,Ge,32,9.87,2.57,4.55,4,0.04,2.1,25,77.24,39.24,1210.4,0.0
25,As,33,11.85,3.0,4.8,5,0.04,2.3,0,39.42,14.62,1081.0,0.0
38,In,49,15.75,1.6,3.9,3,0.07,1.9,0,41.09,3.728,429.76,0.0
39,Sn,50,16.3,1.9,4.15,4,0.04,2.1,0,110.9,18.44,505.06,0.0
40,Sb,51,16.95,2.0,4.4,5,0.04,2.3,0,38.29,20.01,904.0,0.0
44,Ce,58,21.62,1.69,3.18,4,0.07,0.7,0,23.95,11.97,1071.0,-2.0
45,Pr,59,20.79,1.73,3.19,5,0.07,0.7,0,30.58,13.54,1204.0,-2.5
46,Nd,60,20.58,1.73,3.19,6,0.07,0.7,0,32.68,14.52,1289.0,-2.5
47,Pm,61,20.25,1.77,3.19,7,0.07,0.7,0,35.32,16.68,1204.0,-2.5
48,Sm,62,20.01,1.77,3.2,8,0.07,0.7,0,29.41,12.65,1345.0,0.0
49,Eu,63,19.97,1.77,3.2,9,0.1,0.7,0,14.72,5.886,1090.0,2.2
50,Gd,64,19.9,1.77,3.2,10,0.07,0.7,0,38.34,22.27,1585.0,-2.5
51,Tb,65,19.32,1.82,3.21,11,0.07,0.7,0,39.93,22.86,1630.0,-2.5
52,Dy,66,19.0,1.82,3.21,12,0.07,0.7,0,38.44,25.41,1682.0,-2.5
53,Ho,67,18.76,1.82,3.22,13,0.07,0.7,0,39.68,26.68,1743.0,-2.5
54,Er,68,18.45,1.86,3.22,14,0.07,0.7,0,41.08,29.63,1795.0,-2.5
55,Tm,69,18.12,1.86,3.22,15,0.07,0.7,0,39.7,30.41,1818.0,-2.5
56,Yb,70,17.97,1.86,3.22,16,0.1,0.7,0,13.27,6.965,1097.0,-2.0
67,Tl,81,17.23,1.4,3.9,3,0.07,1.9,0,35.93,2.747,577.0,0.0
68,Pb,82,18.28,1.52,4.1,4,0.04,2.1,0,42.99,5.396,600.6,0.0
69,Bi,83,19.32,1.56,4.15,5,0.04,2.3,0,31.48,12.85,544.52,0.0
70,Th,90,19.8,2.1,3.3,4,0.04,0.7,0,54.29,27.86,2028.0,2.2
71,U,92,13.15,3.44,3.9,6,0.04,1.0,0,98.79,73.58,1405.0,0.0
72,Pu,94,12.06,2.99,3.8,8,0.04,1.0,0,53.56,43.75,913.0,0.0